
Currently Loaded Modules:
  1) mpi/impi/2017   2) chem/cp2k/5.1-popt

 


Fri Jul 20 10:49:55 CEST 2018

(fh2n0274:0,1,2,3,4,5,6,7,8,9,10,11,12,13,14,15,16,17,18,19)
 DBCSR| Multiplication driver                                               BLAS
 DBCSR| Multrec recursion limit                                              512
 DBCSR| Multiplication stack size                                           1000
 DBCSR| Maximum elements for images                                    UNLIMITED
 DBCSR| Multiplicative factor virtual images                                   1
 DBCSR| Multiplication size stacks                                             3
 DBCSR| Number of 3D layers                                               SINGLE
 DBCSR| Use MPI memory allocation                                              T
 DBCSR| Use RMA algorithm                                                      F
 DBCSR| Use Communication thread                                               T
 DBCSR| Communication thread load                                             87


  **** **** ******  **  PROGRAM STARTED AT               2018-07-20 10:49:57.841
 ***** ** ***  *** **   PROGRAM STARTED ON                  fh2n0274.localdomain
 **    ****   ******    PROGRAM STARTED BY                                mg6616
 ***** **    ** ** **   PROGRAM PROCESS ID                                 14187
  **** **  *******  **  PROGRAM STARTED IN /pfs/work6/workspace/scratch/mg6616-N
                                           EGF-0/zz_16_1

 CP2K| version string:                                          CP2K version 5.1
 CP2K| source code revision number:                                    svn:18091
 CP2K| cp2kflags: libint fftw3 libxc parallel mpi3 scalapack                    
 CP2K| is freely available from                            https://www.cp2k.org/
 CP2K| Program compiled at                          Thu Feb 22 15:13:01 CET 2018
 CP2K| Program compiled on                                  fh2n1995.localdomain
 CP2K| Program compiled for                                   Linux-x86-64-intel
 CP2K| Data directory path    /project/fh2-project-scs/jk7683/cp2k/cp2k-5.1/data
 CP2K| Input file name                                                 input.inp
 
 GLOBAL| Force Environment number                                              1
 GLOBAL| Basis set file name            /software/all/chem/cp2k/cp2k-5.1/data/BA
 GLOBAL| Potential file name            /software/all/chem/cp2k/cp2k-5.1/data/PO
 GLOBAL| MM Potential file name                                     MM_POTENTIAL
 GLOBAL| Coordinate file name                                         zz16_1.xyz
 GLOBAL| Method name                                                        CP2K
 GLOBAL| Project name                                                     zz16_1
 GLOBAL| Preferred FFT library                                             FFTW3
 GLOBAL| Preferred diagonalization lib.                                       SL
 GLOBAL| Run type                                                   ENERGY_FORCE
 GLOBAL| All-to-all communication in single precision                          F
 GLOBAL| FFTs using library dependent lengths                                  F
 GLOBAL| Global print level                                                  LOW
 GLOBAL| Total number of message passing processes                            20
 GLOBAL| Number of threads for this process                                    1
 GLOBAL| This output is from process                                           0
 GLOBAL| CPU model name :  Intel(R) Xeon(R) CPU E5-2660 v3 @ 2.60GHz

 MEMORY| system memory details [Kb]
 MEMORY|                        rank 0           min           max       average
 MEMORY| MemTotal             65576876      65576876      65576876      65576876
 MEMORY| MemFree              61235000      61235000      61235000      61235000
 MEMORY| Buffers                     8             8             8             8
 MEMORY| Cached                 732792        732792        732792        732792
 MEMORY| Slab                   416288        416288        416288        416288
 MEMORY| SReclaimable            69584         69584         69584         69584
 MEMORY| MemLikelyFree        62037384      62037384      62037384      62037384

 
 GENERATE|  Preliminary Number of Bonds generated:                             0
 GENERATE|  Achieved consistency in connectivity generation.

 *******************************************************************************
 *******************************************************************************
 **                                                                           **
 **     #####                         ##              ##                      **
 **    ##   ##            ##          ##              ##                      **
 **   ##     ##                       ##            ######                    **
 **   ##     ##  ##   ##  ##   #####  ##  ##   ####   ##    #####    #####    **
 **   ##     ##  ##   ##  ##  ##      ## ##   ##      ##   ##   ##  ##   ##   **
 **   ##  ## ##  ##   ##  ##  ##      ####     ###    ##   ######   ######    **
 **    ##  ###   ##   ##  ##  ##      ## ##      ##   ##   ##       ##        **
 **     #######   #####   ##   #####  ##  ##  ####    ##    #####   ##        **
 **           ##                                                    ##        **
 **                                                                           **
 **                                                ... make the atoms dance   **
 **                                                                           **
 **            Copyright (C) by CP2K developers group (2000 - 2017)           **
 **                                                                           **
 *******************************************************************************

 *** WARNING in qs_environment.F:1057 :: More added MOs requested than ***
 *** available. The full set of unoccupied MOs will be used.           ***



 SCF PARAMETERS         Density guess:                                   RESTART
                        --------------------------------------------------------
                        max_scf:                                            1000
                        max_scf_history:                                       0
                        max_diis:                                              4
                        --------------------------------------------------------
                        eps_scf:                                        1.00E-07
                        eps_scf_history:                                0.00E+00
                        eps_diis:                                       1.00E-01
                        eps_eigval:                                     1.00E-05
                        --------------------------------------------------------
                        level_shift [a.u.]:                                 0.00
                        added MOs                                       128    0
                        --------------------------------------------------------
                        Mixing method:                            BROYDEN_MIXING
                                                charge density mixing in g-space
                        --------------------------------------------------------
                        Smear method:                                FERMI_DIRAC
                        Electronic temperature [K]:                        300.0
                        Electronic temperature [a.u.]:                  9.50E-04
                        Accuracy threshold:                             1.00E-10
                        --------------------------------------------------------
                        No outer SCF

 Number of electrons:                                                        256
 Number of occupied orbitals:                                                128
 Number of molecular orbitals:                                               256

 Number of orbital functions:                                                256
 Number of independent orbital functions:                                    256

 Extrapolation method: initial_guess

 *** WARNING in qs_initial_guess.F:263 :: User requested to restart the    ***
 *** wavefunction from the file named: zz16_1-RESTART.wfn. This file does  ***
 *** not exist. Please check the existence of the file or change properly  ***
 *** the value of the keyword WFN_RESTART_FILE_NAME. Calculation continues ***
 *** using ATOMIC GUESS.                                                   ***



 SCF WAVEFUNCTION OPTIMIZATION

  Step     Update method      Time    Convergence         Total energy    Change
  ------------------------------------------------------------------------------
     1 NoMix/Diag. 0.10E+00    1.1     2.72467870      -256.7533763093 -2.57E+02
     2 Broy./Diag. 0.10E+00    0.4     0.17534789      -180.2411623464  7.65E+01
     3 Broy./Diag. 0.10E+00    0.4     0.65122258      -196.7160622712 -1.65E+01
     4 Broy./Diag. 0.10E+00    0.4     0.00768661      -206.4487252039 -9.73E+00
     5 Broy./Diag. 0.10E+00    0.4     0.81292138      -213.5898119653 -7.14E+00
     6 Broy./Diag. 0.10E+00    0.4     0.07151999      -208.6359686715  4.95E+00
     7 Broy./Diag. 0.10E+00    0.4     0.08635541      -210.3001744884 -1.66E+00
     8 Broy./Diag. 0.10E+00    0.4     0.06193734      -210.9196676344 -6.19E-01
     9 Broy./Diag. 0.10E+00    0.4     0.05002618      -211.7256007754 -8.06E-01
    10 Broy./Diag. 0.10E+00    0.4     0.34869234      -212.5076967123 -7.82E-01
    11 Broy./Diag. 0.10E+00    0.4     0.00528906      -214.8034490808 -2.30E+00
    12 Broy./Diag. 0.10E+00    0.4     0.02224960      -214.8743887863 -7.09E-02
    13 Broy./Diag. 0.10E+00    0.4     0.31778396      -214.7287224060  1.46E-01
    14 Broy./Diag. 0.10E+00    0.4     0.03094160      -212.8983877120  1.83E+00
    15 Broy./Diag. 0.10E+00    0.4     0.02014571      -212.9554397974 -5.71E-02
    16 Broy./Diag. 0.10E+00    0.4     0.03475856      -213.2069133871 -2.51E-01
    17 Broy./Diag. 0.10E+00    0.4     0.00219169      -213.5371563401 -3.30E-01
    18 Broy./Diag. 0.10E+00    0.4     0.09608013      -213.6152934618 -7.81E-02
    19 Broy./Diag. 0.10E+00    0.4     0.01916294      -214.1611251456 -5.46E-01
    20 Broy./Diag. 0.10E+00    0.4     0.03718075      -214.2370846983 -7.60E-02
    21 Broy./Diag. 0.10E+00    0.4     0.04566694      -213.8827811143  3.54E-01
    22 Broy./Diag. 0.10E+00    0.4     0.06346338      -213.8964827468 -1.37E-02
    23 Broy./Diag. 0.10E+00    0.4     0.06928008      -214.1117382771 -2.15E-01
    24 Broy./Diag. 0.10E+00    0.4     0.04776149      -214.3770283083 -2.65E-01
    25 Broy./Diag. 0.10E+00    0.4     0.05945302      -214.0968273569  2.80E-01
    26 Broy./Diag. 0.10E+00    0.4     0.00743280      -213.6844987337  4.12E-01
    27 Broy./Diag. 0.10E+00    0.4     0.02343395      -213.5992701629  8.52E-02
    28 Broy./Diag. 0.10E+00    0.4     0.00466817      -213.3653565980  2.34E-01
    29 Broy./Diag. 0.10E+00    0.4     0.00306051      -213.2731063975  9.23E-02
    30 Broy./Diag. 0.10E+00    0.4     0.00314735      -213.2443157426  2.88E-02
    31 Broy./Diag. 0.10E+00    0.4     0.00448451      -213.2126835883  3.16E-02
    32 Broy./Diag. 0.10E+00    0.4     0.00175108      -213.1950162870  1.77E-02
    33 Broy./Diag. 0.10E+00    0.4     0.00092406      -213.1698044759  2.52E-02
    34 Broy./Diag. 0.10E+00    0.4     0.00082642      -213.1748655361 -5.06E-03
    35 Broy./Diag. 0.10E+00    0.4     0.00024809      -213.1796102038 -4.74E-03
    36 Broy./Diag. 0.10E+00    0.4     0.00034165      -213.1858871552 -6.28E-03
    37 Broy./Diag. 0.10E+00    0.4     0.00016043      -213.1876462354 -1.76E-03
    38 Broy./Diag. 0.10E+00    0.4     0.00024833      -213.1842010863  3.45E-03
    39 Broy./Diag. 0.10E+00    0.4     0.00033248      -213.1796335052  4.57E-03
    40 Broy./Diag. 0.10E+00    0.4     0.00021678      -213.1710959882  8.54E-03
    41 Broy./Diag. 0.10E+00    0.4     0.00022927      -213.1582490766  1.28E-02
    42 Broy./Diag. 0.10E+00    0.4     0.00031563      -213.1574585758  7.91E-04
    43 Broy./Diag. 0.10E+00    0.4     0.00018363      -213.1592774273 -1.82E-03
    44 Broy./Diag. 0.10E+00    0.4     0.00029792      -213.1662528919 -6.98E-03
    45 Broy./Diag. 0.10E+00    0.4     0.00004056      -213.1679512742 -1.70E-03
    46 Broy./Diag. 0.10E+00    0.4     0.00013197      -213.1687352019 -7.84E-04
    47 Broy./Diag. 0.10E+00    0.4     0.00003424      -213.1690168229 -2.82E-04
    48 Broy./Diag. 0.10E+00    0.4     0.00005341      -213.1682860303  7.31E-04
    49 Broy./Diag. 0.10E+00    0.4     0.00005717      -213.1674606229  8.25E-04
    50 Broy./Diag. 0.10E+00    0.4     0.00003222      -213.1668064279  6.54E-04
    51 Broy./Diag. 0.10E+00    0.4     0.00002811      -213.1660471482  7.59E-04
    52 Broy./Diag. 0.10E+00    0.4     0.00002778      -213.1649679038  1.08E-03
    53 Broy./Diag. 0.10E+00    0.4     0.00000961      -213.1649374744  3.04E-05
    54 Broy./Diag. 0.10E+00    0.4     0.00001615      -213.1653849734 -4.47E-04
    55 Broy./Diag. 0.10E+00    0.4     0.00002063      -213.1662085224 -8.24E-04
    56 Broy./Diag. 0.10E+00    0.4     0.00000883      -213.1665750072 -3.66E-04
    57 Broy./Diag. 0.10E+00    0.4     0.00001793      -213.1665882167 -1.32E-05
    58 Broy./Diag. 0.10E+00    0.4     0.00001541      -213.1665022988  8.59E-05
    59 Broy./Diag. 0.10E+00    0.4     0.00000827      -213.1664492563  5.30E-05
    60 Broy./Diag. 0.10E+00    0.4     0.00000397      -213.1664676131 -1.84E-05
    61 Broy./Diag. 0.10E+00    0.4     0.00000569      -213.1664388897  2.87E-05
    62 Broy./Diag. 0.10E+00    0.4     0.00000378      -213.1664195611  1.93E-05
    63 Broy./Diag. 0.10E+00    0.4     0.00000398      -213.1664455691 -2.60E-05
    64 Broy./Diag. 0.10E+00    0.4     0.00000335      -213.1665573609 -1.12E-04
    65 Broy./Diag. 0.10E+00    0.4     0.00000146      -213.1666916935 -1.34E-04
    66 Broy./Diag. 0.10E+00    0.4     0.00000245      -213.1667797302 -8.80E-05
    67 Broy./Diag. 0.10E+00    0.4     0.00000158      -213.1667777839  1.95E-06
    68 Broy./Diag. 0.10E+00    0.4     0.00000119      -213.1667557786  2.20E-05
    69 Broy./Diag. 0.10E+00    0.4     0.00000322      -213.1667384772  1.73E-05
    70 Broy./Diag. 0.10E+00    0.4     0.00000064      -213.1667385125 -3.53E-08
    71 Broy./Diag. 0.10E+00    0.4     0.00000141      -213.1667374231  1.09E-06
    72 Broy./Diag. 0.10E+00    0.4     0.00000160      -213.1667297362  7.69E-06
    73 Broy./Diag. 0.10E+00    0.4     0.00000047      -213.1667317975 -2.06E-06
    74 Broy./Diag. 0.10E+00    0.4     0.00000040      -213.1667364583 -4.66E-06
    75 Broy./Diag. 0.10E+00    0.4     0.00000066      -213.1667399592 -3.50E-06
    76 Broy./Diag. 0.10E+00    0.4     0.00000032      -213.1667399407  1.86E-08
    77 Broy./Diag. 0.10E+00    0.4     0.00000047      -213.1667356345  4.31E-06
    78 Broy./Diag. 0.10E+00    0.4     0.00000021      -213.1667314142  4.22E-06
    79 Broy./Diag. 0.10E+00    0.4     0.00000027      -213.1667270784  4.34E-06
    80 Broy./Diag. 0.10E+00    0.4     0.00000012      -213.1667244794  2.60E-06
    81 Broy./Diag. 0.10E+00    0.4     0.00000017      -213.1667220914  2.39E-06
    82 Broy./Diag. 0.10E+00    0.4     0.00000015      -213.1667194116  2.68E-06
    83 Broy./Diag. 0.10E+00    0.4     0.00000005      -213.1667180554  1.36E-06

  *** SCF run converged in    83 steps ***


  Electronic density on regular grids:       -255.9999999969        0.0000000031
  Core density on regular grids:              255.9999999784       -0.0000000216
  Total charge density on r-space grids:       -0.0000000186
  Total charge density g-space grids:          -0.0000000186

  Overlap energy of the core charge distribution:              24.88404216183964
  Self energy of the core charge distribution:               -853.44050731297352
  Core Hamiltonian energy:                                    443.71740042640465
  Hartree energy:                                             313.65492983732150
  Exchange-correlation energy:                               -141.58436254623598
  Dispersion energy:                                           -0.39212416099533
  Electronic entropic energy:                                  -0.00609646036532
  Fermi energy:                                                 0.21761153309132

  Total energy:                                              -213.16671805542444

 ENERGY| Total FORCE_EVAL ( QS ) energy (a.u.):             -213.166719906824852


 -------------------------------------------------------------------------------
 -                                                                             -
 -                                DBCSR STATISTICS                             -
 -                                                                             -
 -------------------------------------------------------------------------------
 COUNTER                                    TOTAL       BLAS       SMM       ACC
 flops     4 x     4 x    32           1431306240     100.0%      0.0%      0.0%
 flops inhomo. stacks                           0       0.0%      0.0%      0.0%
 flops total                         1.431306E+09     100.0%      0.0%      0.0%
 flops max/rank                     87.392256E+06     100.0%      0.0%      0.0%
 matmuls inhomo. stacks                         0       0.0%      0.0%      0.0%
 matmuls total                            1397760     100.0%      0.0%      0.0%
 number of processed stacks                 13440     100.0%      0.0%      0.0%
 average stack size                                   104.0       0.0       0.0
 marketing flops                     1.444674E+09
 -------------------------------------------------------------------------------
 # multiplications                             84
 max memory usage/rank             159.424512E+06
 # max total images/rank                        5
 # max 3D layers                                1
 # MPI messages exchanged                   90720
 MPI messages size (bytes):
  total size                       792.723456E+06
  min size                           0.000000E+00
  max size                          33.792000E+03
  average size                       8.738134E+03
 MPI breakdown and total messages size (bytes):
             size <=      128               18144                        0
       128 < size <=     8192               60480                396361728
      8192 < size <=    32768                6048                191987712
     32768 < size <=   131072                6048                204374016
    131072 < size <=  4194304                   0                        0
   4194304 < size <= 16777216                   0                        0
  16777216 < size                               0                        0
 -------------------------------------------------------------------------------

 *** WARNING in dbcsr/mm/dbcsr_mm.F:267 :: Using a non-square number of ***
 *** MPI ranks might lead to poor performance.                          ***
 *** Used ranks: 20                                                     ***
 *** Suggested: 16 36                                                   ***

 -------------------------------------------------------------------------------
 
 MEMORY| Estimated peak process memory [MiB]                                 153

 -------------------------------------------------------------------------------
 -                                                                             -
 -                         MESSAGE PASSING PERFORMANCE                         -
 -                                                                             -
 -------------------------------------------------------------------------------

 ROUTINE             CALLS      AVE VOLUME [Bytes]
 MP_Group               90
 MP_Bcast              207                 902740.
 MP_Allreduce         1544                   1346.
 MP_Sync                91
 MP_Alltoall          4569                1684954.
 MP_ISendRecv        12844                  61992.
 MP_Wait             25525
 MP_comm_split          83
 MP_ISend            14184                  43088.
 MP_IRecv            14184                  42852.
 MP_Recv                45                  53248.
 MP_Memory           19656
 -------------------------------------------------------------------------------


 -------------------------------------------------------------------------------
 -                                                                             -
 -                           R E F E R E N C E S                               -
 -                                                                             -
 -------------------------------------------------------------------------------
 
 CP2K version 5.1, the CP2K developers group (2017).
 CP2K is freely available from https://www.cp2k.org/ .

 Schuett, Ole; Messmer, Peter; Hutter, Juerg; VandeVondele, Joost. 
 Electronic Structure Calculations on Graphics Processing Units, John Wiley & Sons, Ltd, 173-190 (2016). 
 GPU-Accelerated Sparse Matrix-Matrix Multiplication for Linear Scaling Density Functional Theory.
 http://dx.doi.org/10.1002/9781118670712.ch8


 Borstnik, U; VandeVondele, J; Weber, V; Hutter, J. 
 PARALLEL COMPUTING, 40 (5-6), 47-58 (2014). 
 Sparse matrix multiplication: The distributed block-compressed sparse
 row library.
 http://dx.doi.org/10.1016/j.parco.2014.03.012


 Hutter, J; Iannuzzi, M; Schiffmann, F; VandeVondele, J. 
 WILEY INTERDISCIPLINARY REVIEWS-COMPUTATIONAL MOLECULAR SCIENCE, 4 (1), 15-25 (2014). 
 CP2K: atomistic simulations of condensed matter systems.
 http://dx.doi.org/10.1002/wcms.1159


 VandeVondele, J; Hutter, J. 
 JOURNAL OF CHEMICAL PHYSICS, 127 (11), 114105 (2007). 
 Gaussian basis sets for accurate calculations on molecular systems in
 gas and condensed phases.
 http://dx.doi.org/10.1063/1.2770708


 Grimme, S. 
 JOURNAL OF COMPUTATIONAL CHEMISTRY, 27 (15), 1787-1799 (2006). 
 Semiempirical GGA-type density functional constructed with a long-range
 dispersion correction.
 http://dx.doi.org/10.1002/jcc.20495


 Krack, M. 
 THEORETICAL CHEMISTRY ACCOUNTS, 114 (1-3), 145-152 (2005). 
 Pseudopotentials for H to Kr optimized for gradient-corrected
 exchange-correlation functionals.
 http://dx.doi.org/10.1007/s00214-005-0655-y


 VandeVondele, J; Krack, M; Mohamed, F; Parrinello, M; Chassaing, T;
 Hutter, J. COMPUTER PHYSICS COMMUNICATIONS, 167 (2), 103-128 (2005). 
 QUICKSTEP: Fast and accurate density functional calculations using a
 mixed Gaussian and plane waves approach.
 http://dx.doi.org/10.1016/j.cpc.2004.12.014


 Frigo, M; Johnson, SG. 
 PROCEEDINGS OF THE IEEE, 93 (2), 216-231 (2005). 
 The design and implementation of FFTW3.
 http://dx.doi.org/10.1109/JPROC.2004.840301


 Hartwigsen, C; Goedecker, S; Hutter, J. 
 PHYSICAL REVIEW B, 58 (7), 3641-3662 (1998). 
 Relativistic separable dual-space Gaussian pseudopotentials from H to Rn.
 http://dx.doi.org/10.1103/PhysRevB.58.3641


 Lippert, G; Hutter, J; Parrinello, M. 
 MOLECULAR PHYSICS, 92 (3), 477-487 (1997). 
 A hybrid Gaussian and plane wave density functional scheme.
 http://dx.doi.org/10.1080/002689797170220


 Perdew, JP; Burke, K; Ernzerhof, M. 
 PHYSICAL REVIEW LETTERS, 77 (18), 3865-3868 (1996). 
 Generalized gradient approximation made simple.
 http://dx.doi.org/10.1103/PhysRevLett.77.3865


 Goedecker, S; Teter, M; Hutter, J. 
 PHYSICAL REVIEW B, 54 (3), 1703-1710 (1996). 
 Separable dual-space Gaussian pseudopotentials.
 http://dx.doi.org/10.1103/PhysRevB.54.1703


 -------------------------------------------------------------------------------
 -                                                                             -
 -                                T I M I N G                                  -
 -                                                                             -
 -------------------------------------------------------------------------------
 SUBROUTINE                       CALLS  ASD         SELF TIME        TOTAL TIME
                                MAXIMUM       AVERAGE  MAXIMUM  AVERAGE  MAXIMUM
 CP2K                                 1  1.0    0.433    0.479   41.050   41.062
 qs_forces                            1  2.0    0.036    0.036   39.285   39.285
 qs_energies                          1  3.0    0.044    0.044   37.737   37.737
 scf_env_do_scf                       1  4.0    0.003    0.003   33.211   33.225
 scf_env_do_scf_inner_loop           83  5.0    0.015    0.025   33.196   33.210
 rebuild_ks_matrix                   85  7.0    0.003    0.003   18.973   18.975
 qs_ks_build_kohn_sham_matrix        85  8.0    0.058    0.059   18.969   18.971
 qs_ks_update_qs_env                 84  6.0    0.001    0.001   18.710   18.712
 pw_transfer                       1862 10.4    0.103    0.128   10.337   10.940
 fft_wrap_pw1pw2                   1692 11.5    0.013    0.015   10.142   10.736
 fft_wrap_pw1pw2_250               1016 12.5    0.671    0.753    9.612   10.131
 qs_rho_update_rho                   84  6.0    0.003    0.003    9.713    9.718
 calculate_rho_elec                  84  7.0    6.167    6.707    9.710    9.715
 qs_vxc_create                       85  9.0    0.017    0.017    8.861    8.954
 xc_vxc_pw_create                    85 10.0    0.132    0.146    8.844    8.937
 fft3d_ps                          1692 13.5    5.755    6.030    8.220    8.842
 sum_up_and_integrate                85  9.0    0.058    0.061    8.743    8.745
 integrate_v_rspace                  85 10.0    5.929    6.478    8.685    8.693
 xc_rho_set_and_dset_create          85 11.0    0.076    0.082    5.178    5.537
 density_rs2pw                       84  8.0    0.004    0.007    3.222    3.498
 mp_sync                             91  8.6    3.141    3.307    3.141    3.307
 gspace_mixing                       82  6.0    0.037    0.040    3.043    3.043
 mp_alltoall_z22v                  1692 15.5    1.553    2.820    1.553    2.820
 xc_functional_eval                  85 12.0    0.004    0.004    2.377    2.741
 pbe_lda_eval                        85 13.0    2.373    2.737    2.373    2.737
 rs_pw_transfer                     847 10.5    0.007    0.008    2.457    2.706
 dump_info_core_hamiltonian           2  5.0    0.132    2.227    2.266    2.275
 broyden_mixing                      82  7.0    2.158    2.184    2.218    2.228
 qs_scf_new_mos                      83  6.0    0.010    0.011    2.204    2.208
 potential_pw2rs                     85 11.0    0.007    0.008    2.147    2.154
 yz_to_x                            593 14.3    0.218    0.270    1.131    2.120
 qs_energies_init_hamiltonians        1  4.0    0.012    0.013    2.118    2.118
 build_core_hamiltonian_matrix        1  5.0    0.031    0.031    1.647    1.647
 eigensolver                         83  7.0    0.013    0.014    1.537    1.543
 scf_post_calculation_gpw             1  4.0    0.016    0.016    1.379    1.379
 write_available_results              1  5.0    0.000    0.000    1.363    1.363
 x_to_yz                            761 14.7    0.536    0.594    1.173    1.342
 write_mo_free_results                1  6.0    0.069    1.116    1.339    1.339
 cp_fm_syevd                         83  8.0    0.783    1.225    1.258    1.265
 build_core_hamiltonian_matrix_       1  3.0    0.000    0.000    1.243    1.243
 rs_pw_transfer_RS2PW_250            85 10.0    0.253    0.275    0.932    1.182
 cp_fm_syevd_base                    83  9.0    0.442    1.106    0.442    1.106
 mp_waitany                        4104 12.5    0.763    1.000    0.763    1.000
 init_scf_run                         1  4.0    0.010    0.021    0.924    0.924
 pw_scatter_p                       931 13.9    0.684    0.878    0.684    0.878
 -------------------------------------------------------------------------------

 The number of warnings for this run is : 3
 
 -------------------------------------------------------------------------------
  **** **** ******  **  PROGRAM ENDED AT                 2018-07-20 10:50:41.782
 ***** ** ***  *** **   PROGRAM RAN ON                      fh2n0274.localdomain
 **    ****   ******    PROGRAM RAN BY                                    mg6616
 ***** **    ** ** **   PROGRAM PROCESS ID                                 14187
  **** **  *******  **  PROGRAM STOPPED IN /pfs/work6/workspace/scratch/mg6616-N
                                           EGF-0/zz_16_1

Fri Jul 20 10:50:41 CEST 2018

