
Currently Loaded Modules:
  1) mpi/impi/2017   2) chem/cp2k/5.1-popt

 


Sat Jul 21 19:06:05 CEST 2018

(fh2n0451:0,1,2,3,4,5,6,7,8,9,10,11,12,13,14,15,16,17,18,19)
 DBCSR| Multiplication driver                                               BLAS
 DBCSR| Multrec recursion limit                                              512
 DBCSR| Multiplication stack size                                           1000
 DBCSR| Maximum elements for images                                    UNLIMITED
 DBCSR| Multiplicative factor virtual images                                   1
 DBCSR| Multiplication size stacks                                             3
 DBCSR| Number of 3D layers                                               SINGLE
 DBCSR| Use MPI memory allocation                                              T
 DBCSR| Use RMA algorithm                                                      F
 DBCSR| Use Communication thread                                               T
 DBCSR| Communication thread load                                             87


  **** **** ******  **  PROGRAM STARTED AT               2018-07-21 19:06:05.477
 ***** ** ***  *** **   PROGRAM STARTED ON                  fh2n0451.localdomain
 **    ****   ******    PROGRAM STARTED BY                                mg6616
 ***** **    ** ** **   PROGRAM PROCESS ID                                 13030
  **** **  *******  **  PROGRAM STARTED IN /pfs/work6/workspace/scratch/mg6616-N
                                           EGF-0/zz2_3

 CP2K| version string:                                          CP2K version 5.1
 CP2K| source code revision number:                                    svn:18091
 CP2K| cp2kflags: libint fftw3 libxc parallel mpi3 scalapack                    
 CP2K| is freely available from                            https://www.cp2k.org/
 CP2K| Program compiled at                          Thu Feb 22 15:13:01 CET 2018
 CP2K| Program compiled on                                  fh2n1995.localdomain
 CP2K| Program compiled for                                   Linux-x86-64-intel
 CP2K| Data directory path    /project/fh2-project-scs/jk7683/cp2k/cp2k-5.1/data
 CP2K| Input file name                                                 input.inp
 
 GLOBAL| Force Environment number                                              1
 GLOBAL| Basis set file name            /software/all/chem/cp2k/cp2k-5.1/data/BA
 GLOBAL| Potential file name            /software/all/chem/cp2k/cp2k-5.1/data/PO
 GLOBAL| MM Potential file name                                     MM_POTENTIAL
 GLOBAL| Coordinate file name                                         zz_2_3.xyz
 GLOBAL| Method name                                                        CP2K
 GLOBAL| Project name                                                     zz_2_3
 GLOBAL| Preferred FFT library                                             FFTW3
 GLOBAL| Preferred diagonalization lib.                                       SL
 GLOBAL| Run type                                                   ENERGY_FORCE
 GLOBAL| All-to-all communication in single precision                          F
 GLOBAL| FFTs using library dependent lengths                                  F
 GLOBAL| Global print level                                                  LOW
 GLOBAL| Total number of message passing processes                            20
 GLOBAL| Number of threads for this process                                    1
 GLOBAL| This output is from process                                           0
 GLOBAL| CPU model name :  Intel(R) Xeon(R) CPU E5-2660 v3 @ 2.60GHz

 MEMORY| system memory details [Kb]
 MEMORY|                        rank 0           min           max       average
 MEMORY| MemTotal             65576876      65576876      65576876      65576876
 MEMORY| MemFree              61272784      61272784      61272784      61272784
 MEMORY| Buffers                     8             8             8             8
 MEMORY| Cached                 649964        649964        649964        649964
 MEMORY| Slab                   449104        449008        449104        449041
 MEMORY| SReclaimable            80064         80064         80064         80064
 MEMORY| MemLikelyFree        62002820      62002820      62002820      62002820

 
 GENERATE|  Preliminary Number of Bonds generated:                             0
 GENERATE|  Achieved consistency in connectivity generation.

 *******************************************************************************
 *******************************************************************************
 **                                                                           **
 **     #####                         ##              ##                      **
 **    ##   ##            ##          ##              ##                      **
 **   ##     ##                       ##            ######                    **
 **   ##     ##  ##   ##  ##   #####  ##  ##   ####   ##    #####    #####    **
 **   ##     ##  ##   ##  ##  ##      ## ##   ##      ##   ##   ##  ##   ##   **
 **   ##  ## ##  ##   ##  ##  ##      ####     ###    ##   ######   ######    **
 **    ##  ###   ##   ##  ##  ##      ## ##      ##   ##   ##       ##        **
 **     #######   #####   ##   #####  ##  ##  ####    ##    #####   ##        **
 **           ##                                                    ##        **
 **                                                                           **
 **                                                ... make the atoms dance   **
 **                                                                           **
 **            Copyright (C) by CP2K developers group (2000 - 2017)           **
 **                                                                           **
 *******************************************************************************

 *** WARNING in qs_environment.F:1057 :: More added MOs requested than ***
 *** available. The full set of unoccupied MOs will be used.           ***



 SCF PARAMETERS         Density guess:                                   RESTART
                        --------------------------------------------------------
                        max_scf:                                            1000
                        max_scf_history:                                       0
                        max_diis:                                              4
                        --------------------------------------------------------
                        eps_scf:                                        1.00E-07
                        eps_scf_history:                                0.00E+00
                        eps_diis:                                       1.00E-01
                        eps_eigval:                                     1.00E-05
                        --------------------------------------------------------
                        level_shift [a.u.]:                                 0.00
                        added MOs                                        48    0
                        --------------------------------------------------------
                        Mixing method:                            BROYDEN_MIXING
                                                charge density mixing in g-space
                        --------------------------------------------------------
                        Smear method:                                FERMI_DIRAC
                        Electronic temperature [K]:                        300.0
                        Electronic temperature [a.u.]:                  9.50E-04
                        Accuracy threshold:                             1.00E-10
                        --------------------------------------------------------
                        No outer SCF

 Number of electrons:                                                         96
 Number of occupied orbitals:                                                 48
 Number of molecular orbitals:                                                96

 Number of orbital functions:                                                 96
 Number of independent orbital functions:                                     96

 Extrapolation method: initial_guess

 *** WARNING in qs_initial_guess.F:263 :: User requested to restart the    ***
 *** wavefunction from the file named: zz_2_3-RESTART.wfn. This file does  ***
 *** not exist. Please check the existence of the file or change properly  ***
 *** the value of the keyword WFN_RESTART_FILE_NAME. Calculation continues ***
 *** using ATOMIC GUESS.                                                   ***



 SCF WAVEFUNCTION OPTIMIZATION

  Step     Update method      Time    Convergence         Total energy    Change
  ------------------------------------------------------------------------------
     1 NoMix/Diag. 0.10E+00    0.3     1.36707328      -132.6822304045 -1.33E+02
     2 Broy./Diag. 0.10E+00    0.2     0.00032336      -138.9866886758 -6.30E+00
     3 Broy./Diag. 0.10E+00    0.2     0.00328916      -137.3886260562  1.60E+00
     4 Broy./Diag. 0.10E+00    0.2     0.00006464      -137.3097912326  7.88E-02
     5 Broy./Diag. 0.10E+00    0.2     0.00084162      -136.3271293816  9.83E-01
     6 Broy./Diag. 0.10E+00    0.3     0.00006062      -136.2861255084  4.10E-02
     7 Broy./Diag. 0.10E+00    0.3     0.00058824      -136.1411508189  1.45E-01
     8 Broy./Diag. 0.10E+00    0.2     0.00001639      -136.1397078094  1.44E-03
     9 Broy./Diag. 0.10E+00    0.3     0.00017046      -136.1431759183 -3.47E-03
    10 Broy./Diag. 0.10E+00    0.3     0.00000496      -136.1375418230  5.63E-03
    11 Broy./Diag. 0.10E+00    0.3     0.00004825      -136.0833769460  5.42E-02
    12 Broy./Diag. 0.10E+00    0.3     0.00000556      -136.0813575405  2.02E-03
    13 Broy./Diag. 0.10E+00    0.3     0.00004721      -136.0725408949  8.82E-03
    14 Broy./Diag. 0.10E+00    0.3     0.00000186      -136.0729329266 -3.92E-04
    15 Broy./Diag. 0.10E+00    0.3     0.00002572      -136.0808808046 -7.95E-03
    16 Broy./Diag. 0.10E+00    0.3     0.00000371      -136.0839034817 -3.02E-03
    17 Broy./Diag. 0.10E+00    0.3     0.00000557      -136.0876269415 -3.72E-03
    18 Broy./Diag. 0.10E+00    0.3     0.00000342      -136.0845285384  3.10E-03
    19 Broy./Diag. 0.10E+00    0.3     0.00000286      -136.0823224703  2.21E-03
    20 Broy./Diag. 0.10E+00    0.3     0.00000482      -136.0809760018  1.35E-03
    21 Broy./Diag. 0.10E+00    0.3     0.00000497      -136.0810138457 -3.78E-05
    22 Broy./Diag. 0.10E+00    0.3     0.00000249      -136.0808451132  1.69E-04
    23 Broy./Diag. 0.10E+00    0.3     0.00000353      -136.0796868334  1.16E-03
    24 Broy./Diag. 0.10E+00    0.3     0.00000070      -136.0789916729  6.95E-04
    25 Broy./Diag. 0.10E+00    0.3     0.00000510      -136.0766182618  2.37E-03
    26 Broy./Diag. 0.10E+00    0.3     0.00000139      -136.0757116263  9.07E-04
    27 Broy./Diag. 0.10E+00    0.3     0.00000379      -136.0726120445  3.10E-03
    28 Broy./Diag. 0.10E+00    0.3     0.00000095      -136.0728621249 -2.50E-04
    29 Broy./Diag. 0.10E+00    0.3     0.00000245      -136.0736478568 -7.86E-04
    30 Broy./Diag. 0.10E+00    0.3     0.00000152      -136.0734000869  2.48E-04
    31 Broy./Diag. 0.10E+00    0.3     0.00000059      -136.0726917781  7.08E-04
    32 Broy./Diag. 0.10E+00    0.3     0.00000196      -136.0708365365  1.86E-03
    33 Broy./Diag. 0.10E+00    0.3     0.00000042      -136.0708451146 -8.58E-06
    34 Broy./Diag. 0.10E+00    0.3     0.00000076      -136.0711868924 -3.42E-04
    35 Broy./Diag. 0.10E+00    0.3     0.00000086      -136.0715225909 -3.36E-04
    36 Broy./Diag. 0.10E+00    0.3     0.00000094      -136.0720151633 -4.93E-04
    37 Broy./Diag. 0.10E+00    0.3     0.00000071      -136.0725392372 -5.24E-04
    38 Broy./Diag. 0.10E+00    0.3     0.00000048      -136.0724407905  9.84E-05
    39 Broy./Diag. 0.10E+00    0.3     0.00000116      -136.0720347155  4.06E-04
    40 Broy./Diag. 0.10E+00    0.3     0.00000027      -136.0720766935 -4.20E-05
    41 Broy./Diag. 0.10E+00    0.3     0.00000025      -136.0722002747 -1.24E-04
    42 Broy./Diag. 0.10E+00    0.3     0.00000019      -136.0723043004 -1.04E-04
    43 Broy./Diag. 0.10E+00    0.3     0.00000011      -136.0722414766  6.28E-05
    44 Broy./Diag. 0.10E+00    0.3     0.00000022      -136.0719512175  2.90E-04
    45 Broy./Diag. 0.10E+00    0.3     0.00000015      -136.0718546062  9.66E-05
    46 Broy./Diag. 0.10E+00    0.3     0.00000037      -136.0716402087  2.14E-04
    47 Broy./Diag. 0.10E+00    0.3     0.00000010      -136.0715735220  6.67E-05

  *** SCF run converged in    47 steps ***


  Electronic density on regular grids:        -95.9999999985        0.0000000015
  Core density on regular grids:               95.9999999920       -0.0000000080
  Total charge density on r-space grids:       -0.0000000065
  Total charge density g-space grids:          -0.0000000065

  Overlap energy of the core charge distribution:               0.00000444574700
  Self energy of the core charge distribution:               -320.04019024236510
  Core Hamiltonian energy:                                    102.61634928293267
  Hartree energy:                                             123.63663837554820
  Exchange-correlation energy:                                -42.23614145186818
  Dispersion energy:                                           -0.04823393195560
  Electronic entropic energy:                                  -0.00000000000000
  Fermi energy:                                                 0.05533109618500

  Total energy:                                              -136.07157352196097

 ENERGY| Total FORCE_EVAL ( QS ) energy (a.u.):             -136.071680033187789


 -------------------------------------------------------------------------------
 -                                                                             -
 -                                DBCSR STATISTICS                             -
 -                                                                             -
 -------------------------------------------------------------------------------
 COUNTER                                    TOTAL       BLAS       SMM       ACC
 flops     4 x     4 x    32             44236800     100.0%      0.0%      0.0%
 flops inhomo. stacks                           0       0.0%      0.0%      0.0%
 flops total                        44.236800E+06     100.0%      0.0%      0.0%
 flops max/rank                      3.391488E+06     100.0%      0.0%      0.0%
 matmuls inhomo. stacks                         0       0.0%      0.0%      0.0%
 matmuls total                              43200     100.0%      0.0%      0.0%
 number of processed stacks                  2880     100.0%      0.0%      0.0%
 average stack size                                    15.0       0.0       0.0
 marketing flops                    42.467312E+06
 -------------------------------------------------------------------------------
 # multiplications                             48
 max memory usage/rank             155.299840E+06
 # max total images/rank                        5
 # max 3D layers                                1
 # MPI messages exchanged                   51840
 MPI messages size (bytes):
  total size                        63.700992E+06
  min size                           0.000000E+00
  max size                          12.288000E+03
  average size                       1.228800E+03
 MPI breakdown and total messages size (bytes):
             size <=      128               36288                        0
       128 < size <=     8192               12960                 31850496
      8192 < size <=    32768                2592                 31850496
     32768 < size <=   131072                   0                        0
    131072 < size <=  4194304                   0                        0
   4194304 < size <= 16777216                   0                        0
  16777216 < size                               0                        0
 -------------------------------------------------------------------------------

 *** WARNING in dbcsr/mm/dbcsr_mm.F:267 :: Using a non-square number of ***
 *** MPI ranks might lead to poor performance.                          ***
 *** Used ranks: 20                                                     ***
 *** Suggested: 16 36                                                   ***

 -------------------------------------------------------------------------------
 
 MEMORY| Estimated peak process memory [MiB]                                 149

 -------------------------------------------------------------------------------
 -                                                                             -
 -                         MESSAGE PASSING PERFORMANCE                         -
 -                                                                             -
 -------------------------------------------------------------------------------

 ROUTINE             CALLS      AVE VOLUME [Bytes]
 MP_Group               54
 MP_Bcast              135                1365772.
 MP_Allreduce          930                    496.
 MP_Sync                55
 MP_Alltoall          2429                1556324.
 MP_ISendRecv         7372                  45684.
 MP_Wait             13069
 MP_comm_split          47
 MP_ISend             6552                  54813.
 MP_IRecv             6360                  56328.
 MP_Recv                27                   7680.
 MP_Memory            9504
 -------------------------------------------------------------------------------


 -------------------------------------------------------------------------------
 -                                                                             -
 -                           R E F E R E N C E S                               -
 -                                                                             -
 -------------------------------------------------------------------------------
 
 CP2K version 5.1, the CP2K developers group (2017).
 CP2K is freely available from https://www.cp2k.org/ .

 Schuett, Ole; Messmer, Peter; Hutter, Juerg; VandeVondele, Joost. 
 Electronic Structure Calculations on Graphics Processing Units, John Wiley & Sons, Ltd, 173-190 (2016). 
 GPU-Accelerated Sparse Matrix-Matrix Multiplication for Linear Scaling Density Functional Theory.
 http://dx.doi.org/10.1002/9781118670712.ch8


 Borstnik, U; VandeVondele, J; Weber, V; Hutter, J. 
 PARALLEL COMPUTING, 40 (5-6), 47-58 (2014). 
 Sparse matrix multiplication: The distributed block-compressed sparse
 row library.
 http://dx.doi.org/10.1016/j.parco.2014.03.012


 Hutter, J; Iannuzzi, M; Schiffmann, F; VandeVondele, J. 
 WILEY INTERDISCIPLINARY REVIEWS-COMPUTATIONAL MOLECULAR SCIENCE, 4 (1), 15-25 (2014). 
 CP2K: atomistic simulations of condensed matter systems.
 http://dx.doi.org/10.1002/wcms.1159


 VandeVondele, J; Hutter, J. 
 JOURNAL OF CHEMICAL PHYSICS, 127 (11), 114105 (2007). 
 Gaussian basis sets for accurate calculations on molecular systems in
 gas and condensed phases.
 http://dx.doi.org/10.1063/1.2770708


 Grimme, S. 
 JOURNAL OF COMPUTATIONAL CHEMISTRY, 27 (15), 1787-1799 (2006). 
 Semiempirical GGA-type density functional constructed with a long-range
 dispersion correction.
 http://dx.doi.org/10.1002/jcc.20495


 Krack, M. 
 THEORETICAL CHEMISTRY ACCOUNTS, 114 (1-3), 145-152 (2005). 
 Pseudopotentials for H to Kr optimized for gradient-corrected
 exchange-correlation functionals.
 http://dx.doi.org/10.1007/s00214-005-0655-y


 VandeVondele, J; Krack, M; Mohamed, F; Parrinello, M; Chassaing, T;
 Hutter, J. COMPUTER PHYSICS COMMUNICATIONS, 167 (2), 103-128 (2005). 
 QUICKSTEP: Fast and accurate density functional calculations using a
 mixed Gaussian and plane waves approach.
 http://dx.doi.org/10.1016/j.cpc.2004.12.014


 Frigo, M; Johnson, SG. 
 PROCEEDINGS OF THE IEEE, 93 (2), 216-231 (2005). 
 The design and implementation of FFTW3.
 http://dx.doi.org/10.1109/JPROC.2004.840301


 Hartwigsen, C; Goedecker, S; Hutter, J. 
 PHYSICAL REVIEW B, 58 (7), 3641-3662 (1998). 
 Relativistic separable dual-space Gaussian pseudopotentials from H to Rn.
 http://dx.doi.org/10.1103/PhysRevB.58.3641


 Lippert, G; Hutter, J; Parrinello, M. 
 MOLECULAR PHYSICS, 92 (3), 477-487 (1997). 
 A hybrid Gaussian and plane wave density functional scheme.
 http://dx.doi.org/10.1080/002689797170220


 Perdew, JP; Burke, K; Ernzerhof, M. 
 PHYSICAL REVIEW LETTERS, 77 (18), 3865-3868 (1996). 
 Generalized gradient approximation made simple.
 http://dx.doi.org/10.1103/PhysRevLett.77.3865


 Goedecker, S; Teter, M; Hutter, J. 
 PHYSICAL REVIEW B, 54 (3), 1703-1710 (1996). 
 Separable dual-space Gaussian pseudopotentials.
 http://dx.doi.org/10.1103/PhysRevB.54.1703


 -------------------------------------------------------------------------------
 -                                                                             -
 -                                T I M I N G                                  -
 -                                                                             -
 -------------------------------------------------------------------------------
 SUBROUTINE                       CALLS  ASD         SELF TIME        TOTAL TIME
                                MAXIMUM       AVERAGE  MAXIMUM  AVERAGE  MAXIMUM
 CP2K                                 1  1.0    0.044    0.047   13.793   13.796
 qs_forces                            1  2.0    0.004    0.004   13.558   13.558
 qs_energies                          1  3.0    0.007    0.007   13.202   13.202
 scf_env_do_scf                       1  4.0    0.000    0.000   12.421   12.426
 scf_env_do_scf_inner_loop           47  5.0    0.003    0.005   12.420   12.425
 rebuild_ks_matrix                   49  7.0    0.000    0.000    8.035    8.036
 qs_ks_build_kohn_sham_matrix        49  8.0    0.012    0.012    8.035    8.035
 qs_ks_update_qs_env                 48  6.0    0.000    0.000    7.856    7.856
 pw_transfer                       1070 10.4    0.057    0.062    6.053    6.117
 fft_wrap_pw1pw2                    972 11.5    0.006    0.006    5.928    5.995
 fft_wrap_pw1pw2_250                584 12.5    0.503    0.547    5.658    5.821
 qs_vxc_create                       49  9.0    0.002    0.003    5.321    5.326
 xc_vxc_pw_create                    49 10.0    0.079    0.097    5.319    5.323
 fft3d_ps                           972 13.5    3.251    3.616    4.670    4.741
 xc_rho_set_and_dset_create          49 11.0    0.042    0.043    3.047    3.086
 qs_rho_update_rho                   48  6.0    0.001    0.001    2.340    2.341
 calculate_rho_elec                  48  7.0    0.592    0.633    2.339    2.340
 gspace_mixing                       46  6.0    0.020    0.021    1.917    1.917
 sum_up_and_integrate                49  9.0    0.040    0.041    1.902    1.903
 integrate_v_rspace                  49 10.0    0.562    0.592    1.862    1.864
 density_rs2pw                       48  8.0    0.002    0.003    1.614    1.636
 broyden_mixing                      46  7.0    1.425    1.433    1.460    1.464
 xc_functional_eval                  49 12.0    0.001    0.001    1.322    1.354
 pbe_lda_eval                        49 13.0    1.321    1.353    1.321    1.353
 mp_alltoall_z22v                   972 15.5    0.930    1.291    0.930    1.291
 potential_pw2rs                     49 11.0    0.004    0.004    1.260    1.262
 rs_pw_transfer                     487 10.5    0.003    0.003    1.163    1.185
 x_to_yz                            535 14.9    0.345    0.360    0.772    0.891
 yz_to_x                            437 14.0    0.128    0.137    0.632    0.879
 qs_scf_new_mos                      47  6.0    0.002    0.002    0.478    0.479
 mp_sync                             55  8.0    0.449    0.473    0.449    0.473
 rs_pw_transfer_PW2RS_250            50 12.9    0.293    0.309    0.434    0.450
 pw_gather_p                        437 13.0    0.319    0.439    0.319    0.439
 pw_scatter_p                       535 13.9    0.415    0.436    0.415    0.436
 rs_pw_transfer_RS2PW_250            49 10.0    0.270    0.290    0.372    0.401
 scf_post_calculation_gpw             1  4.0    0.002    0.002    0.334    0.334
 write_available_results              1  5.0    0.001    0.001    0.332    0.332
 write_mo_free_results                1  6.0    0.010    0.159    0.330    0.330
 dump_info_core_hamiltonian           2  5.0    0.017    0.318    0.322    0.323
 eigensolver                         47  7.0    0.003    0.003    0.303    0.304
 pw_derive                          294 11.5    0.270    0.297    0.270    0.297
 pw_copy                            588 11.5    0.280    0.287    0.280    0.287
 fft_wrap_pw1pw2_90                  97 12.5    0.011    0.013    0.209    0.283
 qs_energies_init_hamiltonians        1  4.0    0.004    0.004    0.281    0.281
 -------------------------------------------------------------------------------

 The number of warnings for this run is : 3
 
 -------------------------------------------------------------------------------
  **** **** ******  **  PROGRAM ENDED AT                 2018-07-21 19:06:19.609
 ***** ** ***  *** **   PROGRAM RAN ON                      fh2n0451.localdomain
 **    ****   ******    PROGRAM RAN BY                                    mg6616
 ***** **    ** ** **   PROGRAM PROCESS ID                                 13030
  **** **  *******  **  PROGRAM STOPPED IN /pfs/work6/workspace/scratch/mg6616-N
                                           EGF-0/zz2_3

Sat Jul 21 19:06:19 CEST 2018

