
Currently Loaded Modules:
  1) mpi/impi/2017   2) chem/cp2k/5.1-popt

 


Wed Jul 18 09:36:23 CEST 2018

(fh2n0434:0,1,2,3,4,5,6,7,8,9,10,11,12,13,14,15,16,17,18,19)
 DBCSR| Multiplication driver                                               BLAS
 DBCSR| Multrec recursion limit                                              512
 DBCSR| Multiplication stack size                                           1000
 DBCSR| Maximum elements for images                                    UNLIMITED
 DBCSR| Multiplicative factor virtual images                                   1
 DBCSR| Multiplication size stacks                                             3
 DBCSR| Number of 3D layers                                               SINGLE
 DBCSR| Use MPI memory allocation                                              T
 DBCSR| Use RMA algorithm                                                      F
 DBCSR| Use Communication thread                                               T
 DBCSR| Communication thread load                                             87


  **** **** ******  **  PROGRAM STARTED AT               2018-07-18 09:36:23.317
 ***** ** ***  *** **   PROGRAM STARTED ON                  fh2n0434.localdomain
 **    ****   ******    PROGRAM STARTED BY                                mg6616
 ***** **    ** ** **   PROGRAM PROCESS ID                                  4986
  **** **  *******  **  PROGRAM STARTED IN /pfs/work6/workspace/scratch/mg6616-N
                                           EGF-0/h2o

 CP2K| version string:                                          CP2K version 5.1
 CP2K| source code revision number:                                    svn:18091
 CP2K| cp2kflags: libint fftw3 libxc parallel mpi3 scalapack                    
 CP2K| is freely available from                            https://www.cp2k.org/
 CP2K| Program compiled at                          Thu Feb 22 15:13:01 CET 2018
 CP2K| Program compiled on                                  fh2n1995.localdomain
 CP2K| Program compiled for                                   Linux-x86-64-intel
 CP2K| Data directory path    /project/fh2-project-scs/jk7683/cp2k/cp2k-5.1/data
 CP2K| Input file name                                                 input.inp
 
 GLOBAL| Force Environment number                                              1
 GLOBAL| Basis set file name            /software/all/chem/cp2k/cp2k-5.1/data/BA
 GLOBAL| Potential file name            /software/all/chem/cp2k/cp2k-5.1/data/PO
 GLOBAL| MM Potential file name                                     MM_POTENTIAL
 GLOBAL| Coordinate file name                                            h2o.xyz
 GLOBAL| Method name                                                        CP2K
 GLOBAL| Project name                                                        h2o
 GLOBAL| Preferred FFT library                                             FFTW3
 GLOBAL| Preferred diagonalization lib.                                       SL
 GLOBAL| Run type                                                   ENERGY_FORCE
 GLOBAL| All-to-all communication in single precision                          F
 GLOBAL| FFTs using library dependent lengths                                  F
 GLOBAL| Global print level                                                  LOW
 GLOBAL| Total number of message passing processes                            20
 GLOBAL| Number of threads for this process                                    1
 GLOBAL| This output is from process                                           0
 GLOBAL| CPU model name :  Intel(R) Xeon(R) CPU E5-2660 v3 @ 2.60GHz

 MEMORY| system memory details [Kb]
 MEMORY|                        rank 0           min           max       average
 MEMORY| MemTotal             65576876      65576876      65576876      65576876
 MEMORY| MemFree              61426832      61426832      61426832      61426832
 MEMORY| Buffers                     0             0             0             0
 MEMORY| Cached                 489264        489264        489264        489264
 MEMORY| Slab                   426656        426656        426656        426656
 MEMORY| SReclaimable            64564         64564         64564         64564
 MEMORY| MemLikelyFree        61980660      61980660      61980660      61980660

 
 GENERATE|  Preliminary Number of Bonds generated:                             0
 GENERATE|  Achieved consistency in connectivity generation.

 *******************************************************************************
 *******************************************************************************
 **                                                                           **
 **     #####                         ##              ##                      **
 **    ##   ##            ##          ##              ##                      **
 **   ##     ##                       ##            ######                    **
 **   ##     ##  ##   ##  ##   #####  ##  ##   ####   ##    #####    #####    **
 **   ##     ##  ##   ##  ##  ##      ## ##   ##      ##   ##   ##  ##   ##   **
 **   ##  ## ##  ##   ##  ##  ##      ####     ###    ##   ######   ######    **
 **    ##  ###   ##   ##  ##  ##      ## ##      ##   ##   ##       ##        **
 **     #######   #####   ##   #####  ##  ##  ####    ##    #####   ##        **
 **           ##                                                    ##        **
 **                                                                           **
 **                                                ... make the atoms dance   **
 **                                                                           **
 **            Copyright (C) by CP2K developers group (2000 - 2017)           **
 **                                                                           **
 *******************************************************************************

 *** WARNING in qs_environment.F:1057 :: More added MOs requested than ***
 *** available. The full set of unoccupied MOs will be used.           ***



 SCF PARAMETERS         Density guess:                                   RESTART
                        --------------------------------------------------------
                        max_scf:                                            1000
                        max_scf_history:                                       0
                        max_diis:                                              4
                        --------------------------------------------------------
                        eps_scf:                                        1.00E-07
                        eps_scf_history:                                0.00E+00
                        eps_diis:                                       1.00E-01
                        eps_eigval:                                     1.00E-05
                        --------------------------------------------------------
                        level_shift [a.u.]:                                 0.00
                        added MOs                                         2    0
                        --------------------------------------------------------
                        Mixing method:                            BROYDEN_MIXING
                                                charge density mixing in g-space
                        --------------------------------------------------------
                        Smear method:                                FERMI_DIRAC
                        Electronic temperature [K]:                        300.0
                        Electronic temperature [a.u.]:                  9.50E-04
                        Accuracy threshold:                             1.00E-10
                        --------------------------------------------------------
                        No outer SCF

 Number of electrons:                                                          8
 Number of occupied orbitals:                                                  4
 Number of molecular orbitals:                                                 6

 Number of orbital functions:                                                  6
 Number of independent orbital functions:                                      6

 Extrapolation method: initial_guess

 *** WARNING in qs_initial_guess.F:263 :: User requested to restart the    ***
 *** wavefunction from the file named: h2o-RESTART.wfn. This file does not ***
 *** exist. Please check the existence of the file or change properly the  ***
 *** value of the keyword WFN_RESTART_FILE_NAME. Calculation continues     ***
 *** using ATOMIC GUESS.                                                   ***



 SCF WAVEFUNCTION OPTIMIZATION

  Step     Update method      Time    Convergence         Total energy    Change
  ------------------------------------------------------------------------------
     1 NoMix/Diag. 0.10E+00    0.2     0.81299999       -16.9493064788 -1.69E+01
     2 Broy./Diag. 0.10E+00    0.2     0.02881273       -16.1224174543  8.27E-01
     3 Broy./Diag. 0.10E+00    0.2     0.26628277       -16.7511700758 -6.29E-01
     4 Broy./Diag. 0.10E+00    0.2     0.00295012       -17.3278953912 -5.77E-01
     5 Broy./Diag. 0.10E+00    0.2     0.02324110       -17.1540247395  1.74E-01
     6 Broy./Diag. 0.10E+00    0.2     0.00154942       -17.1598300326 -5.81E-03
     7 Broy./Diag. 0.10E+00    0.2     0.01901812       -17.0989154146  6.09E-02
     8 Broy./Diag. 0.10E+00    0.2     0.00060007       -17.1332759171 -3.44E-02
     9 Broy./Diag. 0.10E+00    0.2     0.00433403       -17.1296547092  3.62E-03
    10 Broy./Diag. 0.10E+00    0.2     0.00028077       -17.1375157786 -7.86E-03
    11 Broy./Diag. 0.10E+00    0.2     0.00091980       -17.1330933612  4.42E-03
    12 Broy./Diag. 0.10E+00    0.2     0.00011844       -17.1339484568 -8.55E-04
    13 Broy./Diag. 0.10E+00    0.2     0.00034625       -17.1297954993  4.15E-03
    14 Broy./Diag. 0.10E+00    0.2     0.00099195       -17.1312486114 -1.45E-03
    15 Broy./Diag. 0.10E+00    0.2     0.00029887       -17.1342669202 -3.02E-03
    16 Broy./Diag. 0.10E+00    0.2     0.00041263       -17.1341208976  1.46E-04
    17 Broy./Diag. 0.10E+00    0.2     0.00012017       -17.1322678672  1.85E-03
    18 Broy./Diag. 0.10E+00    0.2     0.00036025       -17.1302867544  1.98E-03
    19 Broy./Diag. 0.10E+00    0.2     0.00013859       -17.1306701074 -3.83E-04
    20 Broy./Diag. 0.10E+00    0.2     0.00004614       -17.1316188193 -9.49E-04
    21 Broy./Diag. 0.10E+00    0.2     0.00011501       -17.1319382693 -3.19E-04
    22 Broy./Diag. 0.10E+00    0.2     0.00009699       -17.1319182423  2.00E-05
    23 Broy./Diag. 0.10E+00    0.2     0.00002740       -17.1316303501  2.88E-04
    24 Broy./Diag. 0.10E+00    0.2     0.00000611       -17.1314421758  1.88E-04
    25 Broy./Diag. 0.10E+00    0.2     0.00011788       -17.1315811894 -1.39E-04
    26 Broy./Diag. 0.10E+00    0.2     0.00005873       -17.1319500409 -3.69E-04
    27 Broy./Diag. 0.10E+00    0.2     0.00007652       -17.1320251672 -7.51E-05
    28 Broy./Diag. 0.10E+00    0.2     0.00004968       -17.1317077664  3.17E-04
    29 Broy./Diag. 0.10E+00    0.2     0.00001309       -17.1314567224  2.51E-04
    30 Broy./Diag. 0.10E+00    0.2     0.00002352       -17.1313434285  1.13E-04
    31 Broy./Diag. 0.10E+00    0.2     0.00000605       -17.1314290488 -8.56E-05
    32 Broy./Diag. 0.10E+00    0.2     0.00000508       -17.1315109768 -8.19E-05
    33 Broy./Diag. 0.10E+00    0.2     0.00000317       -17.1315343986 -2.34E-05
    34 Broy./Diag. 0.10E+00    0.2     0.00001216       -17.1315808148 -4.64E-05
    35 Broy./Diag. 0.10E+00    0.2     0.00001073       -17.1315617889  1.90E-05
    36 Broy./Diag. 0.10E+00    0.2     0.00001496       -17.1315391876  2.26E-05
    37 Broy./Diag. 0.10E+00    0.2     0.00000656       -17.1315268721  1.23E-05
    38 Broy./Diag. 0.10E+00    0.2     0.00000522       -17.1315637276 -3.69E-05
    39 Broy./Diag. 0.10E+00    0.2     0.00000164       -17.1315886316 -2.49E-05
    40 Broy./Diag. 0.10E+00    0.2     0.00000520       -17.1315958241 -7.19E-06
    41 Broy./Diag. 0.10E+00    0.2     0.00000135       -17.1315809046  1.49E-05
    42 Broy./Diag. 0.10E+00    0.2     0.00000065       -17.1315699341  1.10E-05
    43 Broy./Diag. 0.10E+00    0.2     0.00000037       -17.1315675742  2.36E-06
    44 Broy./Diag. 0.10E+00    0.2     0.00000094       -17.1315651720  2.40E-06
    45 Broy./Diag. 0.10E+00    0.2     0.00000043       -17.1315673798 -2.21E-06
    46 Broy./Diag. 0.10E+00    0.2     0.00000121       -17.1315696158 -2.24E-06
    47 Broy./Diag. 0.10E+00    0.2     0.00000042       -17.1315713759 -1.76E-06
    48 Broy./Diag. 0.10E+00    0.2     0.00000116       -17.1315675434  3.83E-06
    49 Broy./Diag. 0.10E+00    0.2     0.00000025       -17.1315643191  3.22E-06
    50 Broy./Diag. 0.10E+00    0.2     0.00000045       -17.1315648940 -5.75E-07
    51 Broy./Diag. 0.10E+00    0.2     0.00000020       -17.1315670009 -2.11E-06
    52 Broy./Diag. 0.10E+00    0.2     0.00000010       -17.1315685184 -1.52E-06

  *** SCF run converged in    52 steps ***


  Electronic density on regular grids:         -7.9999999996        0.0000000004
  Core density on regular grids:                7.9999999997       -0.0000000003
  Total charge density on r-space grids:        0.0000000001
  Total charge density g-space grids:           0.0000000001

  Overlap energy of the core charge distribution:               0.00000006666585
  Self energy of the core charge distribution:                -44.34715499673765
  Core Hamiltonian energy:                                     13.10886029324139
  Hartree energy:                                              18.36527310951474
  Exchange-correlation energy:                                 -4.25849592833910
  Dispersion energy:                                           -0.00005106277769
  Electronic entropic energy:                                  -0.00000000000000
  Fermi energy:                                                 0.25077659608747

  Total energy:                                               -17.13156851843246

 ENERGY| Total FORCE_EVAL ( QS ) energy (a.u.):              -17.131569008622314


 -------------------------------------------------------------------------------
 -                                                                             -
 -                                DBCSR STATISTICS                             -
 -                                                                             -
 -------------------------------------------------------------------------------
 COUNTER                                    TOTAL       BLAS       SMM       ACC
 flops     1 x     1 x     6                 1908     100.0%      0.0%      0.0%
 flops     1 x     4 x     6                 2544     100.0%      0.0%      0.0%
 flops     4 x     1 x     6                 2544     100.0%      0.0%      0.0%
 flops     4 x     4 x     6                10176     100.0%      0.0%      0.0%
 flops inhomo. stacks                           0       0.0%      0.0%      0.0%
 flops total                        17.172000E+03     100.0%      0.0%      0.0%
 flops max/rank                     12.720000E+03     100.0%      0.0%      0.0%
 matmuls inhomo. stacks                         0       0.0%      0.0%      0.0%
 matmuls total                                318     100.0%      0.0%      0.0%
 number of processed stacks                   265     100.0%      0.0%      0.0%
 average stack size                                     1.2       0.0       0.0
 marketing flops                    15.264006E+03
 -------------------------------------------------------------------------------
 # multiplications                             53
 max memory usage/rank             149.651456E+06
 # max total images/rank                        5
 # max 3D layers                                1
 # MPI messages exchanged                   57240
 MPI messages size (bytes):
  total size                       274.752000E+03
  min size                           0.000000E+00
  max size                         288.000000E+00
  average size                       4.800000E+00
 MPI breakdown and total messages size (bytes):
             size <=      128               56286                    45792
       128 < size <=     8192                 954                   228960
      8192 < size <=    32768                   0                        0
     32768 < size <=   131072                   0                        0
    131072 < size <=  4194304                   0                        0
   4194304 < size <= 16777216                   0                        0
  16777216 < size                               0                        0
 -------------------------------------------------------------------------------

 *** WARNING in dbcsr/mm/dbcsr_mm.F:267 :: Using a non-square number of ***
 *** MPI ranks might lead to poor performance.                          ***
 *** Used ranks: 20                                                     ***
 *** Suggested: 16 36                                                   ***

 -------------------------------------------------------------------------------
 
 MEMORY| Estimated peak process memory [MiB]                                 143

 -------------------------------------------------------------------------------
 -                                                                             -
 -                         MESSAGE PASSING PERFORMANCE                         -
 -                                                                             -
 -------------------------------------------------------------------------------

 ROUTINE             CALLS      AVE VOLUME [Bytes]
 MP_Group               59
 MP_Bcast              176                2091061.
 MP_Allreduce         1042                    436.
 MP_Sync                60
 MP_Alltoall          2895                1109437.
 MP_ISendRecv         8132                  61992.
 MP_Wait             16163
 MP_comm_split          52
 MP_ISend             8764                  43257.
 MP_IRecv             8552                  44322.
 MP_Recv                15                     48.
 MP_Memory           10388
 -------------------------------------------------------------------------------


 -------------------------------------------------------------------------------
 -                                                                             -
 -                           R E F E R E N C E S                               -
 -                                                                             -
 -------------------------------------------------------------------------------
 
 CP2K version 5.1, the CP2K developers group (2017).
 CP2K is freely available from https://www.cp2k.org/ .

 Schuett, Ole; Messmer, Peter; Hutter, Juerg; VandeVondele, Joost. 
 Electronic Structure Calculations on Graphics Processing Units, John Wiley & Sons, Ltd, 173-190 (2016). 
 GPU-Accelerated Sparse Matrix-Matrix Multiplication for Linear Scaling Density Functional Theory.
 http://dx.doi.org/10.1002/9781118670712.ch8


 Borstnik, U; VandeVondele, J; Weber, V; Hutter, J. 
 PARALLEL COMPUTING, 40 (5-6), 47-58 (2014). 
 Sparse matrix multiplication: The distributed block-compressed sparse
 row library.
 http://dx.doi.org/10.1016/j.parco.2014.03.012


 Hutter, J; Iannuzzi, M; Schiffmann, F; VandeVondele, J. 
 WILEY INTERDISCIPLINARY REVIEWS-COMPUTATIONAL MOLECULAR SCIENCE, 4 (1), 15-25 (2014). 
 CP2K: atomistic simulations of condensed matter systems.
 http://dx.doi.org/10.1002/wcms.1159


 VandeVondele, J; Hutter, J. 
 JOURNAL OF CHEMICAL PHYSICS, 127 (11), 114105 (2007). 
 Gaussian basis sets for accurate calculations on molecular systems in
 gas and condensed phases.
 http://dx.doi.org/10.1063/1.2770708


 Grimme, S. 
 JOURNAL OF COMPUTATIONAL CHEMISTRY, 27 (15), 1787-1799 (2006). 
 Semiempirical GGA-type density functional constructed with a long-range
 dispersion correction.
 http://dx.doi.org/10.1002/jcc.20495


 Krack, M. 
 THEORETICAL CHEMISTRY ACCOUNTS, 114 (1-3), 145-152 (2005). 
 Pseudopotentials for H to Kr optimized for gradient-corrected
 exchange-correlation functionals.
 http://dx.doi.org/10.1007/s00214-005-0655-y


 VandeVondele, J; Krack, M; Mohamed, F; Parrinello, M; Chassaing, T;
 Hutter, J. COMPUTER PHYSICS COMMUNICATIONS, 167 (2), 103-128 (2005). 
 QUICKSTEP: Fast and accurate density functional calculations using a
 mixed Gaussian and plane waves approach.
 http://dx.doi.org/10.1016/j.cpc.2004.12.014


 Frigo, M; Johnson, SG. 
 PROCEEDINGS OF THE IEEE, 93 (2), 216-231 (2005). 
 The design and implementation of FFTW3.
 http://dx.doi.org/10.1109/JPROC.2004.840301


 Hartwigsen, C; Goedecker, S; Hutter, J. 
 PHYSICAL REVIEW B, 58 (7), 3641-3662 (1998). 
 Relativistic separable dual-space Gaussian pseudopotentials from H to Rn.
 http://dx.doi.org/10.1103/PhysRevB.58.3641


 Lippert, G; Hutter, J; Parrinello, M. 
 MOLECULAR PHYSICS, 92 (3), 477-487 (1997). 
 A hybrid Gaussian and plane wave density functional scheme.
 http://dx.doi.org/10.1080/002689797170220


 Perdew, JP; Burke, K; Ernzerhof, M. 
 PHYSICAL REVIEW LETTERS, 77 (18), 3865-3868 (1996). 
 Generalized gradient approximation made simple.
 http://dx.doi.org/10.1103/PhysRevLett.77.3865


 Goedecker, S; Teter, M; Hutter, J. 
 PHYSICAL REVIEW B, 54 (3), 1703-1710 (1996). 
 Separable dual-space Gaussian pseudopotentials.
 http://dx.doi.org/10.1103/PhysRevB.54.1703


 -------------------------------------------------------------------------------
 -                                                                             -
 -                                T I M I N G                                  -
 -                                                                             -
 -------------------------------------------------------------------------------
 SUBROUTINE                       CALLS  ASD         SELF TIME        TOTAL TIME
                                MAXIMUM       AVERAGE  MAXIMUM  AVERAGE  MAXIMUM
 CP2K                                 1  1.0    0.043    0.047   11.905   11.905
 qs_forces                            1  2.0    0.004    0.004   11.647   11.647
 qs_energies                          1  3.0    0.004    0.004   11.493   11.493
 scf_env_do_scf                       1  4.0    0.000    0.001   11.120   11.121
 scf_env_do_scf_inner_loop           52  5.0    0.003    0.005   11.119   11.119
 rebuild_ks_matrix                   54  7.0    0.000    0.000    7.408    7.427
 qs_ks_build_kohn_sham_matrix        54  8.0    0.009    0.013    7.407    7.426
 qs_ks_update_qs_env                 53  6.0    0.000    0.001    7.263    7.282
 pw_transfer                       1180 10.4    0.064    0.078    6.255    6.489
 fft_wrap_pw1pw2                   1072 11.5    0.006    0.008    6.136    6.363
 fft_wrap_pw1pw2_250                644 12.5    0.416    0.469    5.917    6.095
 qs_vxc_create                       54  9.0    0.002    0.003    5.166    5.225
 xc_vxc_pw_create                    54 10.0    0.073    0.080    5.163    5.223
 fft3d_ps                          1072 13.5    3.543    3.721    4.929    5.195
 xc_rho_set_and_dset_create          54 11.0    0.036    0.039    2.885    2.998
 qs_rho_update_rho                   53  6.0    0.001    0.001    1.910    1.912
 calculate_rho_elec                  53  7.0    0.040    0.064    1.909    1.911
 gspace_mixing                       51  6.0    0.019    0.020    1.824    1.824
 density_rs2pw                       53  8.0    0.002    0.003    1.707    1.744
 mp_alltoall_z22v                  1072 15.5    0.882    1.623    0.882    1.623
 sum_up_and_integrate                54  9.0    0.038    0.041    1.408    1.428
 integrate_v_rspace                  54 10.0    0.024    0.047    1.371    1.388
 potential_pw2rs                     54 11.0    0.005    0.005    1.339    1.344
 rs_pw_transfer                     537 10.5    0.003    0.004    1.323    1.341
 broyden_mixing                      51  7.0    1.276    1.299    1.311    1.318
 xc_functional_eval                  54 12.0    0.000    0.001    1.113    1.218
 pbe_lda_eval                        54 13.0    1.112    1.217    1.112    1.217
 yz_to_x                            376 14.3    0.139    0.181    0.622    1.165
 x_to_yz                            482 14.7    0.336    0.375    0.733    0.837
 pw_scatter_p                       590 13.9    0.434    0.572    0.434    0.572
 rs_pw_transfer_PW2RS_250            55 12.9    0.289    0.309    0.451    0.473
 rs_pw_transfer_RS2PW_250            54 10.0    0.270    0.282    0.367    0.382
 pw_gather_p                        482 13.0    0.332    0.367    0.332    0.367
 qs_scf_new_mos                      52  6.0    0.001    0.002    0.285    0.303
 pw_derive                          324 11.5    0.230    0.281    0.230    0.281
 mp_sum_d                           886  5.3    0.104    0.261    0.104    0.261
 pw_copy                            648 11.5    0.219    0.251    0.219    0.251
 -------------------------------------------------------------------------------

 The number of warnings for this run is : 3
 
 -------------------------------------------------------------------------------
  **** **** ******  **  PROGRAM ENDED AT                 2018-07-18 09:36:35.545
 ***** ** ***  *** **   PROGRAM RAN ON                      fh2n0434.localdomain
 **    ****   ******    PROGRAM RAN BY                                    mg6616
 ***** **    ** ** **   PROGRAM PROCESS ID                                  4986
  **** **  *******  **  PROGRAM STOPPED IN /pfs/work6/workspace/scratch/mg6616-N
                                           EGF-0/h2o

Wed Jul 18 09:36:35 CEST 2018

