
Currently Loaded Modules:
  1) mpi/impi/2017   2) chem/cp2k/5.1-popt

 


Tue Jul 24 09:42:35 CEST 2018

(fh2n0223:0,1,2,3,4,5,6,7,8,9,10,11,12,13,14,15,16,17,18,19)
 DBCSR| Multiplication driver                                               BLAS
 DBCSR| Multrec recursion limit                                              512
 DBCSR| Multiplication stack size                                           1000
 DBCSR| Maximum elements for images                                    UNLIMITED
 DBCSR| Multiplicative factor virtual images                                   1
 DBCSR| Multiplication size stacks                                             3
 DBCSR| Number of 3D layers                                               SINGLE
 DBCSR| Use MPI memory allocation                                              T
 DBCSR| Use RMA algorithm                                                      F
 DBCSR| Use Communication thread                                               T
 DBCSR| Communication thread load                                             87


  **** **** ******  **  PROGRAM STARTED AT               2018-07-24 09:42:38.238
 ***** ** ***  *** **   PROGRAM STARTED ON                  fh2n0223.localdomain
 **    ****   ******    PROGRAM STARTED BY                                mg6616
 ***** **    ** ** **   PROGRAM PROCESS ID                                  3428
  **** **  *******  **  PROGRAM STARTED IN /pfs/work6/workspace/scratch/mg6616-N
                                           EGF-0/zz4_3

 CP2K| version string:                                          CP2K version 5.1
 CP2K| source code revision number:                                    svn:18091
 CP2K| cp2kflags: libint fftw3 libxc parallel mpi3 scalapack                    
 CP2K| is freely available from                            https://www.cp2k.org/
 CP2K| Program compiled at                          Thu Feb 22 15:13:01 CET 2018
 CP2K| Program compiled on                                  fh2n1995.localdomain
 CP2K| Program compiled for                                   Linux-x86-64-intel
 CP2K| Data directory path    /project/fh2-project-scs/jk7683/cp2k/cp2k-5.1/data
 CP2K| Input file name                                                 input.inp
 
 GLOBAL| Force Environment number                                              1
 GLOBAL| Basis set file name            /software/all/chem/cp2k/cp2k-5.1/data/BA
 GLOBAL| Potential file name            /software/all/chem/cp2k/cp2k-5.1/data/PO
 GLOBAL| MM Potential file name                                     MM_POTENTIAL
 GLOBAL| Coordinate file name                                         zz_4_3.xyz
 GLOBAL| Method name                                                        CP2K
 GLOBAL| Project name                                                     zz_4_3
 GLOBAL| Preferred FFT library                                             FFTW3
 GLOBAL| Preferred diagonalization lib.                                       SL
 GLOBAL| Run type                                                   ENERGY_FORCE
 GLOBAL| All-to-all communication in single precision                          F
 GLOBAL| FFTs using library dependent lengths                                  F
 GLOBAL| Global print level                                                  LOW
 GLOBAL| Total number of message passing processes                            20
 GLOBAL| Number of threads for this process                                    1
 GLOBAL| This output is from process                                           0
 GLOBAL| CPU model name :  Intel(R) Xeon(R) CPU E5-2660 v3 @ 2.60GHz

 MEMORY| system memory details [Kb]
 MEMORY|                        rank 0           min           max       average
 MEMORY| MemTotal             65576876      65576876      65576876      65576876
 MEMORY| MemFree              61428968      61428968      61428968      61428968
 MEMORY| Buffers                    20            20            20            20
 MEMORY| Cached                 512720        512720        512720        512720
 MEMORY| Slab                   428692        428692        428692        428692
 MEMORY| SReclaimable            81356         81356         81356         81356
 MEMORY| MemLikelyFree        62023064      62023064      62023064      62023064

 
 GENERATE|  Preliminary Number of Bonds generated:                             0
 GENERATE|  Achieved consistency in connectivity generation.

 *******************************************************************************
 *******************************************************************************
 **                                                                           **
 **     #####                         ##              ##                      **
 **    ##   ##            ##          ##              ##                      **
 **   ##     ##                       ##            ######                    **
 **   ##     ##  ##   ##  ##   #####  ##  ##   ####   ##    #####    #####    **
 **   ##     ##  ##   ##  ##  ##      ## ##   ##      ##   ##   ##  ##   ##   **
 **   ##  ## ##  ##   ##  ##  ##      ####     ###    ##   ######   ######    **
 **    ##  ###   ##   ##  ##  ##      ## ##      ##   ##   ##       ##        **
 **     #######   #####   ##   #####  ##  ##  ####    ##    #####   ##        **
 **           ##                                                    ##        **
 **                                                                           **
 **                                                ... make the atoms dance   **
 **                                                                           **
 **            Copyright (C) by CP2K developers group (2000 - 2017)           **
 **                                                                           **
 *******************************************************************************

 *** WARNING in qs_environment.F:1057 :: More added MOs requested than ***
 *** available. The full set of unoccupied MOs will be used.           ***



 SCF PARAMETERS         Density guess:                                   RESTART
                        --------------------------------------------------------
                        max_scf:                                            1000
                        max_scf_history:                                       0
                        max_diis:                                              4
                        --------------------------------------------------------
                        eps_scf:                                        1.00E-07
                        eps_scf_history:                                0.00E+00
                        eps_diis:                                       1.00E-01
                        eps_eigval:                                     1.00E-05
                        --------------------------------------------------------
                        level_shift [a.u.]:                                 0.00
                        added MOs                                        96    0
                        --------------------------------------------------------
                        Mixing method:                            BROYDEN_MIXING
                                                charge density mixing in g-space
                        --------------------------------------------------------
                        Smear method:                                FERMI_DIRAC
                        Electronic temperature [K]:                        300.0
                        Electronic temperature [a.u.]:                  9.50E-04
                        Accuracy threshold:                             1.00E-10
                        --------------------------------------------------------
                        No outer SCF

 Number of electrons:                                                        192
 Number of occupied orbitals:                                                 96
 Number of molecular orbitals:                                               192

 Number of orbital functions:                                                192
 Number of independent orbital functions:                                    192

 Extrapolation method: initial_guess

 *** WARNING in qs_initial_guess.F:263 :: User requested to restart the    ***
 *** wavefunction from the file named: zz_4_3-RESTART.wfn. This file does  ***
 *** not exist. Please check the existence of the file or change properly  ***
 *** the value of the keyword WFN_RESTART_FILE_NAME. Calculation continues ***
 *** using ATOMIC GUESS.                                                   ***



 SCF WAVEFUNCTION OPTIMIZATION

  Step     Update method      Time    Convergence         Total energy    Change
  ------------------------------------------------------------------------------
     1 NoMix/Diag. 0.10E+00    1.4     1.34193256      -265.4639283810 -2.65E+02
     2 Broy./Diag. 0.10E+00    0.5     0.00035080      -279.5682136140 -1.41E+01
     3 Broy./Diag. 0.10E+00    0.5     0.00364742      -275.6207508924  3.95E+00
     4 Broy./Diag. 0.10E+00    0.5     0.00007885      -275.4302580162  1.90E-01
     5 Broy./Diag. 0.10E+00    0.5     0.00085555      -273.1259942398  2.30E+00
     6 Broy./Diag. 0.10E+00    0.5     0.00007566      -273.0424770383  8.35E-02
     7 Broy./Diag. 0.10E+00    0.5     0.00073650      -272.8186522103  2.24E-01
     8 Broy./Diag. 0.10E+00    0.5     0.00000864      -272.8165282415  2.12E-03
     9 Broy./Diag. 0.10E+00    0.5     0.00006408      -272.8364916043 -2.00E-02
    10 Broy./Diag. 0.10E+00    0.6     0.00000444      -272.8229548658  1.35E-02
    11 Broy./Diag. 0.10E+00    0.6     0.00004246      -272.6884067521  1.35E-01
    12 Broy./Diag. 0.10E+00    0.6     0.00000260      -272.6837813672  4.63E-03
    13 Broy./Diag. 0.10E+00    0.6     0.00002157      -272.6658813961  1.79E-02
    14 Broy./Diag. 0.10E+00    0.5     0.00000093      -272.6668718772 -9.90E-04
    15 Broy./Diag. 0.10E+00    0.6     0.00001686      -272.6859418905 -1.91E-02
    16 Broy./Diag. 0.10E+00    0.6     0.00000287      -272.6915020159 -5.56E-03
    17 Broy./Diag. 0.10E+00    0.6     0.00000770      -272.7000027943 -8.50E-03
    18 Broy./Diag. 0.10E+00    0.6     0.00000639      -272.6929625843  7.04E-03
    19 Broy./Diag. 0.10E+00    0.6     0.00000130      -272.6883277186  4.63E-03
    20 Broy./Diag. 0.10E+00    0.6     0.00000685      -272.6851919867  3.14E-03
    21 Broy./Diag. 0.10E+00    0.6     0.00000579      -272.6863655979 -1.17E-03
    22 Broy./Diag. 0.10E+00    0.6     0.00000271      -272.6870463436 -6.81E-04
    23 Broy./Diag. 0.10E+00    0.6     0.00000144      -272.6844004601  2.65E-03
    24 Broy./Diag. 0.10E+00    0.6     0.00000166      -272.6822608427  2.14E-03
    25 Broy./Diag. 0.10E+00    0.5     0.00000284      -272.6781832589  4.08E-03
    26 Broy./Diag. 0.10E+00    0.5     0.00000061      -272.6765729681  1.61E-03
    27 Broy./Diag. 0.10E+00    0.6     0.00000401      -272.6691041853  7.47E-03
    28 Broy./Diag. 0.10E+00    0.6     0.00000100      -272.6692470445 -1.43E-04
    29 Broy./Diag. 0.10E+00    0.6     0.00000214      -272.6711855959 -1.94E-03
    30 Broy./Diag. 0.10E+00    0.6     0.00000124      -272.6708131573  3.72E-04
    31 Broy./Diag. 0.10E+00    0.6     0.00000061      -272.6693584582  1.45E-03
    32 Broy./Diag. 0.10E+00    0.6     0.00000169      -272.6650038778  4.35E-03
    33 Broy./Diag. 0.10E+00    0.6     0.00000062      -272.6649894273  1.45E-05
    34 Broy./Diag. 0.10E+00    0.6     0.00000158      -272.6660561476 -1.07E-03
    35 Broy./Diag. 0.10E+00    0.6     0.00000039      -272.6665958140 -5.40E-04
    36 Broy./Diag. 0.10E+00    0.6     0.00000124      -272.6680049848 -1.41E-03
    37 Broy./Diag. 0.10E+00    0.6     0.00000075      -272.6687006049 -6.96E-04
    38 Broy./Diag. 0.10E+00    0.6     0.00000044      -272.6685979060  1.03E-04
    39 Broy./Diag. 0.10E+00    0.6     0.00000058      -272.6679943847  6.04E-04
    40 Broy./Diag. 0.10E+00    0.6     0.00000023      -272.6679947897 -4.05E-07
    41 Broy./Diag. 0.10E+00    0.6     0.00000035      -272.6683106234 -3.16E-04
    42 Broy./Diag. 0.10E+00    0.6     0.00000020      -272.6684893841 -1.79E-04
    43 Broy./Diag. 0.10E+00    0.6     0.00000006      -272.6683754436  1.14E-04

  *** SCF run converged in    43 steps ***


  Electronic density on regular grids:       -191.9999999980        0.0000000020
  Core density on regular grids:              191.9999999838       -0.0000000162
  Total charge density on r-space grids:       -0.0000000142
  Total charge density g-space grids:          -0.0000000142

  Overlap energy of the core charge distribution:               0.00000889149417
  Self energy of the core charge distribution:               -640.08038048473020
  Core Hamiltonian energy:                                    203.53752956956225
  Hartree energy:                                             248.26274246923128
  Exchange-correlation energy:                                -84.29180802525933
  Dispersion energy:                                           -0.09646786392621
  Electronic entropic energy:                                  -0.00000000000000
  Fermi energy:                                                -0.00250310167448

  Total energy:                                              -272.66837544362801

 ENERGY| Total FORCE_EVAL ( QS ) energy (a.u.):             -272.666925196750640


 -------------------------------------------------------------------------------
 -                                                                             -
 -                                DBCSR STATISTICS                             -
 -                                                                             -
 -------------------------------------------------------------------------------
 COUNTER                                    TOTAL       BLAS       SMM       ACC
 flops     4 x     4 x    32            317915136     100.0%      0.0%      0.0%
 flops inhomo. stacks                           0       0.0%      0.0%      0.0%
 flops total                       317.915136E+06     100.0%      0.0%      0.0%
 flops max/rank                     18.653184E+06     100.0%      0.0%      0.0%
 matmuls inhomo. stacks                         0       0.0%      0.0%      0.0%
 matmuls total                             310464     100.0%      0.0%      0.0%
 number of processed stacks                  5280     100.0%      0.0%      0.0%
 average stack size                                    58.8       0.0       0.0
 marketing flops                   311.426944E+06
 -------------------------------------------------------------------------------
 # multiplications                             44
 max memory usage/rank             226.287616E+06
 # max total images/rank                        5
 # max 3D layers                                1
 # MPI messages exchanged                   47520
 MPI messages size (bytes):
  total size                       233.570304E+06
  min size                           0.000000E+00
  max size                          25.600000E+03
  average size                       4.915200E+03
 MPI breakdown and total messages size (bytes):
             size <=      128               19008                        0
       128 < size <=     8192               23760                116785152
      8192 < size <=    32768                4752                116785152
     32768 < size <=   131072                   0                        0
    131072 < size <=  4194304                   0                        0
   4194304 < size <= 16777216                   0                        0
  16777216 < size                               0                        0
 -------------------------------------------------------------------------------

 *** WARNING in dbcsr/mm/dbcsr_mm.F:267 :: Using a non-square number of ***
 *** MPI ranks might lead to poor performance.                          ***
 *** Used ranks: 20                                                     ***
 *** Suggested: 16 36                                                   ***

 -------------------------------------------------------------------------------
 
 MEMORY| Estimated peak process memory [MiB]                                 217

 -------------------------------------------------------------------------------
 -                                                                             -
 -                         MESSAGE PASSING PERFORMANCE                         -
 -                                                                             -
 -------------------------------------------------------------------------------

 ROUTINE             CALLS      AVE VOLUME [Bytes]
 MP_Group               50
 MP_Bcast              127                1458859.
 MP_Allreduce          862                   1517.
 MP_Sync                51
 MP_Alltoall          2229                2927640.
 MP_ISendRecv         6764                  89820.
 MP_Wait             11989
 MP_comm_split          43
 MP_ISend             6008                  99156.
 MP_IRecv             6008                  98932.
 MP_Recv                27                  30720.
 MP_Memory            9768
 -------------------------------------------------------------------------------


 -------------------------------------------------------------------------------
 -                                                                             -
 -                           R E F E R E N C E S                               -
 -                                                                             -
 -------------------------------------------------------------------------------
 
 CP2K version 5.1, the CP2K developers group (2017).
 CP2K is freely available from https://www.cp2k.org/ .

 Schuett, Ole; Messmer, Peter; Hutter, Juerg; VandeVondele, Joost. 
 Electronic Structure Calculations on Graphics Processing Units, John Wiley & Sons, Ltd, 173-190 (2016). 
 GPU-Accelerated Sparse Matrix-Matrix Multiplication for Linear Scaling Density Functional Theory.
 http://dx.doi.org/10.1002/9781118670712.ch8


 Borstnik, U; VandeVondele, J; Weber, V; Hutter, J. 
 PARALLEL COMPUTING, 40 (5-6), 47-58 (2014). 
 Sparse matrix multiplication: The distributed block-compressed sparse
 row library.
 http://dx.doi.org/10.1016/j.parco.2014.03.012


 Hutter, J; Iannuzzi, M; Schiffmann, F; VandeVondele, J. 
 WILEY INTERDISCIPLINARY REVIEWS-COMPUTATIONAL MOLECULAR SCIENCE, 4 (1), 15-25 (2014). 
 CP2K: atomistic simulations of condensed matter systems.
 http://dx.doi.org/10.1002/wcms.1159


 VandeVondele, J; Hutter, J. 
 JOURNAL OF CHEMICAL PHYSICS, 127 (11), 114105 (2007). 
 Gaussian basis sets for accurate calculations on molecular systems in
 gas and condensed phases.
 http://dx.doi.org/10.1063/1.2770708


 Grimme, S. 
 JOURNAL OF COMPUTATIONAL CHEMISTRY, 27 (15), 1787-1799 (2006). 
 Semiempirical GGA-type density functional constructed with a long-range
 dispersion correction.
 http://dx.doi.org/10.1002/jcc.20495


 Krack, M. 
 THEORETICAL CHEMISTRY ACCOUNTS, 114 (1-3), 145-152 (2005). 
 Pseudopotentials for H to Kr optimized for gradient-corrected
 exchange-correlation functionals.
 http://dx.doi.org/10.1007/s00214-005-0655-y


 VandeVondele, J; Krack, M; Mohamed, F; Parrinello, M; Chassaing, T;
 Hutter, J. COMPUTER PHYSICS COMMUNICATIONS, 167 (2), 103-128 (2005). 
 QUICKSTEP: Fast and accurate density functional calculations using a
 mixed Gaussian and plane waves approach.
 http://dx.doi.org/10.1016/j.cpc.2004.12.014


 Frigo, M; Johnson, SG. 
 PROCEEDINGS OF THE IEEE, 93 (2), 216-231 (2005). 
 The design and implementation of FFTW3.
 http://dx.doi.org/10.1109/JPROC.2004.840301


 Hartwigsen, C; Goedecker, S; Hutter, J. 
 PHYSICAL REVIEW B, 58 (7), 3641-3662 (1998). 
 Relativistic separable dual-space Gaussian pseudopotentials from H to Rn.
 http://dx.doi.org/10.1103/PhysRevB.58.3641


 Lippert, G; Hutter, J; Parrinello, M. 
 MOLECULAR PHYSICS, 92 (3), 477-487 (1997). 
 A hybrid Gaussian and plane wave density functional scheme.
 http://dx.doi.org/10.1080/002689797170220


 Perdew, JP; Burke, K; Ernzerhof, M. 
 PHYSICAL REVIEW LETTERS, 77 (18), 3865-3868 (1996). 
 Generalized gradient approximation made simple.
 http://dx.doi.org/10.1103/PhysRevLett.77.3865


 Goedecker, S; Teter, M; Hutter, J. 
 PHYSICAL REVIEW B, 54 (3), 1703-1710 (1996). 
 Separable dual-space Gaussian pseudopotentials.
 http://dx.doi.org/10.1103/PhysRevB.54.1703


 -------------------------------------------------------------------------------
 -                                                                             -
 -                                T I M I N G                                  -
 -                                                                             -
 -------------------------------------------------------------------------------
 SUBROUTINE                       CALLS  ASD         SELF TIME        TOTAL TIME
                                MAXIMUM       AVERAGE  MAXIMUM  AVERAGE  MAXIMUM
 CP2K                                 1  1.0    0.523    0.583   31.852   31.890
 qs_forces                            1  2.0    0.041    0.041   29.944   29.944
 qs_energies                          1  3.0    0.064    0.065   28.863   28.863
 scf_env_do_scf                       1  4.0    0.003    0.003   24.856   24.867
 scf_env_do_scf_inner_loop           43  5.0    0.016    0.018   24.853   24.864
 rebuild_ks_matrix                   45  7.0    0.003    0.003   16.152   16.153
 qs_ks_build_kohn_sham_matrix        45  8.0    0.076    0.077   16.150   16.150
 qs_ks_update_qs_env                 44  6.0    0.000    0.000   15.768   15.768
 pw_transfer                        982 10.4    0.065    0.080   12.785   12.913
 fft_wrap_pw1pw2                    892 11.5    0.009    0.011   12.576   12.695
 fft_wrap_pw1pw2_250                536 12.5    1.040    1.107   12.115   12.232
 qs_vxc_create                       45  9.0    0.016    0.016   10.710   10.756
 xc_vxc_pw_create                    45 10.0    0.173    0.189   10.694   10.740
 fft3d_ps                           892 13.5    7.040    7.242    9.635    9.774
 xc_rho_set_and_dset_create          45 11.0    0.085    0.088    5.927    6.016
 qs_rho_update_rho                   44  6.0    0.023    0.023    4.774    4.776
 calculate_rho_elec                  44  7.0    1.079    1.196    4.751    4.753
 sum_up_and_integrate                45  9.0    0.095    0.097    3.733    3.734
 gspace_mixing                       42  6.0    0.034    0.034    3.707    3.707
 integrate_v_rspace                  45 10.0    1.036    1.129    3.637    3.641
 density_rs2pw                       44  8.0    0.005    0.006    3.398    3.466
 broyden_mixing                      42  7.0    2.714    2.737    2.747    2.764
 potential_pw2rs                     45 11.0    0.008    0.008    2.487    2.490
 xc_functional_eval                  45 12.0    0.004    0.004    2.314    2.394
 pbe_lda_eval                        45 13.0    2.310    2.390    2.310    2.390
 rs_pw_transfer                     447 10.5    0.005    0.006    2.336    2.385
 mp_sync                             51  7.9    1.777    1.871    1.777    1.871
 qs_energies_init_hamiltonians        1  4.0    0.033    0.034    1.761    1.761
 x_to_yz                            491 14.9    0.863    0.893    1.517    1.692
 mp_alltoall_z22v                   892 15.5    1.122    1.339    1.122    1.339
 dump_info_core_hamiltonian           2  5.0    0.084    1.270    1.291    1.293
 qs_scf_new_mos                      43  6.0    0.007    0.008    1.224    1.226
 pw_scatter_p                       491 13.9    1.082    1.179    1.082    1.179
 yz_to_x                            401 14.0    0.526    0.564    0.994    1.112
 scf_post_calculation_gpw             1  4.0    0.018    0.018    1.089    1.089
 build_core_hamiltonian_matrix        1  5.0    0.012    0.012    1.076    1.076
 write_available_results              1  5.0    0.006    0.006    1.065    1.065
 init_scf_run                         1  4.0    0.006    0.009    1.051    1.051
 write_mo_free_results                1  6.0    0.062    0.654    1.024    1.024
 rs_pw_transfer_RS2PW_250            45 10.0    0.613    0.657    0.854    0.916
 rs_pw_transfer_PW2RS_250            46 12.8    0.640    0.656    0.881    0.904
 pw_gather_p                        401 13.0    0.778    0.825    0.778    0.825
 eigensolver                         43  7.0    0.011    0.011    0.752    0.755
 pw_derive                          270 11.5    0.683    0.716    0.683    0.716
 qs_init_subsys                       1  2.0    0.149    0.150    0.658    0.658
 build_core_hamiltonian_matrix_       1  3.0    0.000    0.000    0.652    0.652
 scf_env_initial_rho_setup            1  5.0    0.006    0.006    0.639    0.640
 -------------------------------------------------------------------------------

 The number of warnings for this run is : 3
 
 -------------------------------------------------------------------------------
  **** **** ******  **  PROGRAM ENDED AT                 2018-07-24 09:43:13.391
 ***** ** ***  *** **   PROGRAM RAN ON                      fh2n0223.localdomain
 **    ****   ******    PROGRAM RAN BY                                    mg6616
 ***** **    ** ** **   PROGRAM PROCESS ID                                  3428
  **** **  *******  **  PROGRAM STOPPED IN /pfs/work6/workspace/scratch/mg6616-N
                                           EGF-0/zz4_3

Tue Jul 24 09:43:13 CEST 2018

